
         ----------------------------------------------------------
                                   FINDIF
                     R. A. King and Jonathon Misiewicz
         ----------------------------------------------------------

  Using finite-differences of gradients to determine vibrational frequencies and 
  normal modes. Resulting frequencies are only valid at stationary points.
    Generating geometries for use with 3-point formula.
    Displacement size will be 5.00e-03.
    Number of atoms is 1.
    Number of irreps is 8.
    Number of SALCs is 0.
    Translations projected? 1. Rotations projected? 0.
    Index of SALCs per irrep:
      1 : 
      2 : 
      3 : 
      4 : 
      5 : 
      6 : 
      7 : 
      8 : 
    Number of SALCs per irrep:
      Irrep 1: 0
      Irrep 2: 0
      Irrep 3: 0
      Irrep 4: 0
      Irrep 5: 0
      Irrep 6: 0
      Irrep 7: 0
      Irrep 8: 0
    Number of geometries (including reference) is 1.
    Number of displacements per irrep:
      Irrep 1: 0
      Irrep 2: 0
      Irrep 3: 0
      Irrep 4: 0
      Irrep 5: 0
      Irrep 6: 0
      Irrep 7: 0
      Irrep 8: 0
 1 displacements needed ...

  //>>>>>>>>>>>>>>>>>>>>>>>>>>>>>>>>>>>//
  //    FiniteDifference Computations  //
  //<<<<<<<<<<<<<<<<<<<<<<<<<<<<<<<<<<<//


    -----------------------------------------------------------------------
          Psi4: An Open-Source Ab Initio Electronic Structure Package
                               Psi4 1.9.1 release

                         Git: Rev {} zzzzzzz 


    D. G. A. Smith, L. A. Burns, A. C. Simmonett, R. M. Parrish,
    M. C. Schieber, R. Galvelis, P. Kraus, H. Kruse, R. Di Remigio,
    A. Alenaizan, A. M. James, S. Lehtola, J. P. Misiewicz, M. Scheurer,
    R. A. Shaw, J. B. Schriber, Y. Xie, Z. L. Glick, D. A. Sirianni,
    J. S. O'Brien, J. M. Waldrop, A. Kumar, E. G. Hohenstein,
    B. P. Pritchard, B. R. Brooks, H. F. Schaefer III, A. Yu. Sokolov,
    K. Patkowski, A. E. DePrince III, U. Bozkaya, R. A. King,
    F. A. Evangelista, J. M. Turney, T. D. Crawford, C. D. Sherrill,
    J. Chem. Phys. 152(18) 184108 (2020). https://doi.org/10.1063/5.0006002

                            Additional Code Authors
    E. T. Seidl, C. L. Janssen, E. F. Valeev, M. L. Leininger,
    J. F. Gonthier, R. M. Richard, H. R. McAlexander, M. Saitow, X. Wang,
    P. Verma, M. H. Lechner, A. Jiang, S. Behnle, A. G. Heide,
    M. F. Herbst, and D. L. Poole

             Previous Authors, Complete List of Code Contributors,
                       and Citations for Specific Modules
    https://github.com/psi4/psi4/blob/master/codemeta.json
    https://github.com/psi4/psi4/graphs/contributors
    http://psicode.org/psi4manual/master/introduction.html#citing-psifour

    -----------------------------------------------------------------------


    Psi4 started on: Friday, 01 August 2025 07:45PM

    Process ID: 25901
    Host:       4f125c5b2ebd
    PSIDATADIR: /usr/local/envs/psi4_env/share/psi4
    Memory:     500.0 MiB
    Threads:    1
    
  ==> Input QCSchema <==

--------------------------------------------------------------------------
{'driver': 'gradient',
 'extras': {'psiapi': True, 'wfn_qcvars_only': True},
 'id': None,
 'keywords': {'PARENT_SYMMETRY': 'D2h',
              'SCF__D_CONVERGENCE': 1e-08,
              'SCF__E_CONVERGENCE': 1e-08,
              'function_kwargs': {}},
 'model': {'basis': 'cc-pvtz', 'method': 'pbe0'},
 'molecule': {'atom_labels': [''],
              'atomic_numbers': [18],
              'extras': {},
              'fix_com': True,
              'fix_orientation': True,
              'fragment_charges': [0.0],
              'fragment_multiplicities': [1],
              'fragments': [[0]],
              'geometry': [0.0, 0.0, 0.0],
              'mass_numbers': [40],
              'masses': [39.9623831237],
              'molecular_charge': 0.0,
              'molecular_multiplicity': 1,
              'name': 'Ar',
              'provenance': {'creator': 'QCElemental',
                             'routine': 'qcelemental.molparse.from_string',
                             'version': '0.29.0'},
              'real': [True],
              'schema_name': 'qcschema_molecule',
              'schema_version': 2,
              'symbols': ['Ar'],
              'validated': True},
 'protocols': {'stdout': True},
 'provenance': {'creator': 'QCElemental', 'routine': 'qcelemental.models.results', 'version': '0.29.0'},
 'schema_name': 'qcschema_input',
 'schema_version': 1}
--------------------------------------------------------------------------

Scratch directory: /tmp/
gradient() will perform analytic gradient computation.
   => Libint2 <=

    Primary   basis highest AM E, G, H:  6, 6, 3
    Auxiliary basis highest AM E, G, H:  7, 7, 4
    Onebody   basis highest AM E, G, H:  -, -, -
    Solid Harmonics ordering:            Gaussian

*** tstart() called on 4f125c5b2ebd
*** at Fri Aug  1 19:45:23 2025

   => Loading Basis Set <=

    Name: CC-PVTZ
    Role: ORBITAL
    Keyword: BASIS
    atoms 1 entry AR         line   921 file /usr/local/envs/psi4_env/share/psi4/basis/cc-pvtz.gbs 


         ---------------------------------------------------------
                                   SCF
               by Justin Turney, Rob Parrish, Andy Simmonett
                          and Daniel G. A. Smith
                              RKS Reference
                        1 Threads,    500 MiB Core
         ---------------------------------------------------------

  ==> Geometry <==

    Molecular point group: d2h
    Geometry (in Bohr), charge = 0, multiplicity = 1:

       Center              X                  Y                   Z               Mass       
    ------------   -----------------  -----------------  -----------------  -----------------
         AR           0.000000000000     0.000000000000     0.000000000000    39.962383123700

  Running in d2h symmetry.

  Rotational constants: A = ************  B = ************  C = ************ [cm^-1]
  Rotational constants: A = ************  B = ************  C = ************ [MHz]
  Nuclear repulsion =    0.000000000000000

  Charge       = 0
  Multiplicity = 1
  Electrons    = 18
  Nalpha       = 9
  Nbeta        = 9

  ==> Algorithm <==

  SCF Algorithm Type is DF.
  DIIS enabled.
  MOM disabled.
  Fractional occupation disabled.
  Guess Type is CORE.
  Energy threshold   = 1.00e-08
  Density threshold  = 1.00e-08
  Integral threshold = 1.00e-12

  ==> Primary Basis <==

  Basis Set: CC-PVTZ
    Blend: CC-PVTZ
    Number of shells: 12
    Number of basis functions: 34
    Number of Cartesian functions: 39
    Spherical Harmonics?: true
    Max angular momentum: 3

  ==> DFT Potential <==

   => LibXC <=

    Version 7.0.0
    S. Lehtola, C. Steigemann, M. J.T. Oliveira, and M. A.L. Marques.,  SoftwareX 7, 1–5 (2018) (10.1016/j.softx.2017.11.002)

   => Composite Functional: PBE0 <= 

    PBE0 Hyb-GGA Exchange-Correlation Functional

    C. Adamo and V. Barone.,  J. Chem. Phys. 110, 6158 (1999) (10.1063/1.478522)
    M. Ernzerhof and G. E. Scuseria.,  J. Chem. Phys. 110, 5029 (1999) (10.1063/1.478401)

    Deriv               =              1
    GGA                 =           TRUE
    Meta                =          FALSE

    Exchange Hybrid     =           TRUE
    MP2 Hybrid          =          FALSE

   => Exchange Functionals <=

    0.7500   Perdew, Burke & Ernzerhof

   => Exact (HF) Exchange <=

    0.2500               HF 

   => Correlation Functionals <=

    1.0000   Perdew, Burke & Ernzerhof

   => LibXC Density Thresholds  <==

    XC_HYB_GGA_XC_PBEH:  1.00E-15 

   => Molecular Quadrature <=

    Radial Scheme          =       TREUTLER
    Pruning Scheme         =           NONE
    Nuclear Scheme         =       TREUTLER

    Blocking Scheme        =         OCTREE
    BS radius alpha        =              1
    Pruning alpha          =              1
    Radial Points          =             75
    Spherical Points       =            302
    Total Points           =          19630
    Total Blocks           =            205
    Max Points             =            248
    Max Functions          =             34
    Weights Tolerance      =       1.00E-15

   => Loading Basis Set <=

    Name: (CC-PVTZ AUX)
    Role: JKFIT
    Keyword: DF_BASIS_SCF
    atoms 1 entry AR         line   765 file /usr/local/envs/psi4_env/share/psi4/basis/cc-pvtz-jkfit.gbs 

  ==> Integral Setup <==

  DFHelper Memory: AOs need 0.001 GiB; user supplied 0.347 GiB. 
  Using in-core AOs.

  ==> MemDFJK: Density-Fitted J/K Matrices <==

    J tasked:                   Yes
    K tasked:                   Yes
    wK tasked:                   No
    OpenMP threads:               1
    Memory [MiB]:               355
    Algorithm:                 Core
    Schwarz Cutoff:           1E-12
    Mask sparsity (%):       0.0000
    Fitting Condition:        1E-10

   => Auxiliary Basis Set <=

  Basis Set: (CC-PVTZ AUX)
    Blend: CC-PVTZ-JKFIT
    Number of shells: 37
    Number of basis functions: 121
    Number of Cartesian functions: 145
    Spherical Harmonics?: true
    Max angular momentum: 4

  Cached 100.0% of DFT collocation blocks in 0.019 [GiB].

  Minimum eigenvalue in the overlap matrix is 1.8784975937E-02.
  Reciprocal condition number of the overlap matrix is 8.4110484019E-03.
    Using symmetric orthogonalization.

  ==> Pre-Iterations <==

  SCF Guess: Core (One-Electron) Hamiltonian.

   -------------------------------------------------------
    Irrep   Nso     Nmo     Nalpha   Nbeta   Ndocc  Nsocc
   -------------------------------------------------------
     Ag         9       9       3       3       3       0
     B1g        2       2       0       0       0       0
     B2g        2       2       0       0       0       0
     B3g        2       2       0       0       0       0
     Au         1       1       0       0       0       0
     B1u        6       6       2       2       2       0
     B2u        6       6       2       2       2       0
     B3u        6       6       2       2       2       0
   -------------------------------------------------------
    Total      34      34       9       9       9       0
   -------------------------------------------------------

  ==> Iterations <==

                           Total Energy        Delta E     RMS |[F,P]|

   @DF-RKS iter   1:  -511.86951750889398   -5.11870e+02   4.04959e-01 ADIIS
   @DF-RKS iter   2:  -521.61525616444055   -9.74574e+00   2.97071e-01 ADIIS
   @DF-RKS iter   3:  -526.22481505793917   -4.60956e+00   1.38095e-01 ADIIS
   @DF-RKS iter   4:  -526.95918256580546   -7.34368e-01   7.85725e-02 ADIIS/DIIS
   @DF-RKS iter   5:  -527.34352752062125   -3.84345e-01   2.37085e-02 ADIIS/DIIS
   @DF-RKS iter   6:  -527.37993873021219   -3.64112e-02   4.34491e-03 ADIIS/DIIS
   @DF-RKS iter   7:  -527.38119299970549   -1.25427e-03   1.22077e-04 ADIIS/DIIS
   @DF-RKS iter   8:  -527.38119394493242   -9.45227e-07   1.32785e-06 DIIS
   @DF-RKS iter   9:  -527.38119394505156   -1.19144e-10   2.43102e-08 DIIS
   @DF-RKS iter  10:  -527.38119394505190   -3.41061e-13   1.99170e-10 DIIS
  Energy and wave function converged.


  ==> Post-Iterations <==

   Electrons on quadrature grid:
      Ntotal   =   18.0000000348 ; deviation = 3.479e-08 

    Orbital Energies [Eh]
    ---------------------

    Doubly Occupied:                                                      

       1Ag  -115.302504     2Ag   -11.216205     1B1u   -8.738939  
       1B3u   -8.738939     1B2u   -8.738939     3Ag    -0.990323  
       2B3u   -0.438312     2B2u   -0.438312     2B1u   -0.438312  

    Virtual:                                                              

       3B2u    0.407062     3B3u    0.407062     3B1u    0.407062  
       4Ag     0.516228     1B2g    0.516228     1B3g    0.516228  
       1B1g    0.516228     5Ag     0.516228     6Ag     0.523507  
       2B3g    2.195274     2B2g    2.195274     2B1g    2.195274  
       7Ag     2.195274     8Ag     2.195274     4B1u    2.548152  
       4B3u    2.548152     4B2u    2.548152     5B1u    2.571259  
       5B2u    2.571259     5B3u    2.571259     6B3u    2.571259  
       6B1u    2.571259     1Au     2.571259     6B2u    2.571259  
       9Ag     4.977470  

    Final Occupation by Irrep:
             Ag   B1g   B2g   B3g    Au   B1u   B2u   B3u 
    DOCC [     3,    0,    0,    0,    0,    2,    2,    2 ]
    NA   [     3,    0,    0,    0,    0,    2,    2,    2 ]
    NB   [     3,    0,    0,    0,    0,    2,    2,    2 ]

  @DF-RKS Final Energy:  -527.38119394505190

   => Energetics <=

    Nuclear Repulsion Energy =              0.0000000000000000
    One-Electron Energy =                -728.3024346980600967
    Two-Electron Energy =                 224.1120882765966940
    DFT Exchange-Correlation Energy =     -23.1908475235884985
    Empirical Dispersion Energy =           0.0000000000000000
    VV10 Nonlocal Energy =                  0.0000000000000000
    Total Energy =                       -527.3811939450519048

Computation Completed


Properties will be evaluated at   0.000000,   0.000000,   0.000000 [a0]

Properties computed using the SCF density matrix


 Multipole Moments:

 ------------------------------------------------------------------------------------
     Multipole            Electronic (a.u.)      Nuclear  (a.u.)        Total (a.u.)
 ------------------------------------------------------------------------------------

 L = 1.  Multiply by 2.5417464519 to convert [e a0] to [Debye]
 Dipole X            :          0.0000000            0.0000000            0.0000000
 Dipole Y            :          0.0000000            0.0000000            0.0000000
 Dipole Z            :          0.0000000            0.0000000            0.0000000
 Magnitude           :                                                    0.0000000

 ------------------------------------------------------------------------------------

*** tstop() called on 4f125c5b2ebd at Fri Aug  1 19:45:24 2025
Module time:
	user time   =       0.92 seconds =       0.02 minutes
	system time =       0.47 seconds =       0.01 minutes
	total time  =          1 seconds =       0.02 minutes
Total time:
	user time   =       0.92 seconds =       0.02 minutes
	system time =       0.47 seconds =       0.01 minutes
	total time  =          1 seconds =       0.02 minutes

*** tstart() called on 4f125c5b2ebd
*** at Fri Aug  1 19:45:24 2025


         ------------------------------------------------------------
                                   SCF GRAD                          
                          Rob Parrish, Justin Turney,                
                       Andy Simmonett, and Alex Sokolov              
         ------------------------------------------------------------

  ==> Geometry <==

    Molecular point group: d2h
    Geometry (in Bohr), charge = 0, multiplicity = 1:

       Center              X                  Y                   Z               Mass       
    ------------   -----------------  -----------------  -----------------  -----------------
         AR           0.000000000000     0.000000000000     0.000000000000    39.962383123700

  Nuclear repulsion =    0.000000000000000

  ==> Basis Set <==

  Basis Set: CC-PVTZ
    Blend: CC-PVTZ
    Number of shells: 12
    Number of basis functions: 34
    Number of Cartesian functions: 39
    Spherical Harmonics?: true
    Max angular momentum: 3

  ==> DFJKGrad: Density-Fitted SCF Gradients <==

    Gradient:                    1
    J tasked:                  Yes
    K tasked:                  Yes
    wK tasked:                  No
    OpenMP threads:              1
    Integrals threads:           1
    Memory [MiB]:              375
    Schwarz Cutoff:          1E-12
    Fitting Condition:       1E-10

   => Auxiliary Basis Set <=

  Basis Set: (CC-PVTZ AUX)
    Blend: CC-PVTZ-JKFIT
    Number of shells: 37
    Number of basis functions: 121
    Number of Cartesian functions: 145
    Spherical Harmonics?: true
    Max angular momentum: 4

  ==> DFT Potential <==

   => LibXC <=

    Version 7.0.0
    S. Lehtola, C. Steigemann, M. J.T. Oliveira, and M. A.L. Marques.,  SoftwareX 7, 1–5 (2018) (10.1016/j.softx.2017.11.002)

   => Composite Functional: PBE0 <= 

    PBE0 Hyb-GGA Exchange-Correlation Functional

    C. Adamo and V. Barone.,  J. Chem. Phys. 110, 6158 (1999) (10.1063/1.478522)
    M. Ernzerhof and G. E. Scuseria.,  J. Chem. Phys. 110, 5029 (1999) (10.1063/1.478401)

    Deriv               =              1
    GGA                 =           TRUE
    Meta                =          FALSE

    Exchange Hybrid     =           TRUE
    MP2 Hybrid          =          FALSE

   => Exchange Functionals <=

    0.7500   Perdew, Burke & Ernzerhof

   => Exact (HF) Exchange <=

    0.2500               HF 

   => Correlation Functionals <=

    1.0000   Perdew, Burke & Ernzerhof

   => LibXC Density Thresholds  <==

    XC_HYB_GGA_XC_PBEH:  1.00E-15 

   => Molecular Quadrature <=

    Radial Scheme          =       TREUTLER
    Pruning Scheme         =           NONE
    Nuclear Scheme         =       TREUTLER

    Blocking Scheme        =         OCTREE
    BS radius alpha        =              1
    Pruning alpha          =              1
    Radial Points          =             75
    Spherical Points       =            302
    Total Points           =          19630
    Total Blocks           =            205
    Max Points             =            248
    Max Functions          =             34
    Weights Tolerance      =       1.00E-15


  -Total Gradient:
     Atom            X                  Y                   Z
    ------   -----------------  -----------------  -----------------
       1        0.000000000000    -0.000000000000     0.000000000000


*** tstop() called on 4f125c5b2ebd at Fri Aug  1 19:45:25 2025
Module time:
	user time   =       0.26 seconds =       0.00 minutes
	system time =       0.07 seconds =       0.00 minutes
	total time  =          1 seconds =       0.02 minutes
Total time:
	user time   =       1.19 seconds =       0.02 minutes
	system time =       0.54 seconds =       0.01 minutes
	total time  =          2 seconds =       0.03 minutes

    Psi4 stopped on: Friday, 01 August 2025 07:45PM
    Psi4 wall time for execution: 0:00:01.78


  //>>>>>>>>>>>>>>>>>>>>>>>>>>>>>>>>>>>//
  //      FiniteDifference Results     //
  //<<<<<<<<<<<<<<<<<<<<<<<<<<<<<<<<<<<//

  Computing second-derivative from gradients using projected, 
  symmetry-adapted, cartesian coordinates.

  1 gradients passed in, including the reference geometry.
  Generating complete list of displacements from unique ones.



  ==> Harmonic Vibrational Analysis <==

  non-mass-weighted Hessian:       Symmetric? True   Hermitian? True   Lin Dep Dim?  3 (0)
  projection of translations (True) and rotations (True) removed 3 degrees of freedom (3)
  total projector:                 Symmetric? True   Hermitian? True   Lin Dep Dim?  3 (3)
  mass-weighted Hessian:           Symmetric? True   Hermitian? True   Lin Dep Dim?  3 (0)
  pre-proj  low-frequency mode:    0.0000  [cm^-1]
  pre-proj  low-frequency mode:    0.0000  [cm^-1]
  pre-proj  low-frequency mode:    0.0000  [cm^-1]
  pre-proj  all modes:['0.0000' '0.0000' '0.0000']
  projected mass-weighted Hessian: Symmetric? True   Hermitian? True   Lin Dep Dim?  3 (3)
  post-proj low-frequency mode:    0.0000  [cm^-1] (-)
  post-proj low-frequency mode:    0.0000  [cm^-1] (-)
  post-proj low-frequency mode:    0.0000  [cm^-1] (-)
  post-proj  all modes:['0.0000' '0.0000' '0.0000']

  ==> Thermochemistry Components <==

  Entropy, S
    Electronic S                             0.000 [cal/(mol K)]        0.000 [J/(mol K)]       0.00000000 [mEh/K] (multiplicity = 1)
    Translational S                         36.984 [cal/(mol K)]      154.741 [J/(mol K)]       0.05893760 [mEh/K] (mol. weight = 39.9624 [u], P = 101325.00 [Pa])
    Rotational S                             0.000 [cal/(mol K)]        0.000 [J/(mol K)]       0.00000000 [mEh/K] (symmetry no. = 1)
    Vibrational S                            0.000 [cal/(mol K)]        0.000 [J/(mol K)]       0.00000000 [mEh/K]
  Total S                                   36.984 [cal/(mol K)]      154.741 [J/(mol K)]       0.05893760 [mEh/K]
  Correction S                               0.000 [cal/(mol K)]        0.000 [J/(mol K)]       0.00000000 [mEh/K]

  Constant volume heat capacity, Cv
    Electronic Cv                            0.000 [cal/(mol K)]        0.000 [J/(mol K)]       0.00000000 [mEh/K]
    Translational Cv                         2.981 [cal/(mol K)]       12.472 [J/(mol K)]       0.00475022 [mEh/K]
    Rotational Cv                            0.000 [cal/(mol K)]        0.000 [J/(mol K)]       0.00000000 [mEh/K]
    Vibrational Cv                           0.000 [cal/(mol K)]        0.000 [J/(mol K)]       0.00000000 [mEh/K]
  Total Cv                                   2.981 [cal/(mol K)]       12.472 [J/(mol K)]       0.00475022 [mEh/K]
  Correction Cv                              0.000 [cal/(mol K)]        0.000 [J/(mol K)]       0.00000000 [mEh/K]

  Constant pressure heat capacity, Cp
    Electronic Cp                            0.000 [cal/(mol K)]        0.000 [J/(mol K)]       0.00000000 [mEh/K]
    Translational Cp                         4.968 [cal/(mol K)]       20.786 [J/(mol K)]       0.00791703 [mEh/K]
    Rotational Cp                            0.000 [cal/(mol K)]        0.000 [J/(mol K)]       0.00000000 [mEh/K]
    Vibrational Cp                           0.000 [cal/(mol K)]        0.000 [J/(mol K)]       0.00000000 [mEh/K]
  Total Cp                                   4.968 [cal/(mol K)]       20.786 [J/(mol K)]       0.00791703 [mEh/K]
  Correction Cp                              0.000 [cal/(mol K)]        0.000 [J/(mol K)]       0.00000000 [mEh/K]

  ==> Thermochemistry Energy Analysis <==

  Raw electronic energy, E_e
  Total E_e, Electronic energy at well bottom                                          -527.38119395 [Eh]

  Zero-point vibrational energy, ZPVE = Sum_i omega_i / 2,  E_0 = E_e + ZPVE
    Vibrational ZPVE                         0.000 [kcal/mol]        0.000 [kJ/mol]       0.00000000 [Eh]           0.000 [cm^-1]
  Correction ZPVE to E_e                     0.000 [kcal/mol]        0.000 [kJ/mol]       0.00000000 [Eh]           0.000 [cm^-1]
  Total E_0, Enthalpy at 0 [K]                                                         -527.38119395 [Eh]
  *** Absolute enthalpy, not an enthalpy of formation ***

  Thermal (internal) energy, E (includes ZPVE and finite-temperature corrections)
    Electronic contrib to E beyond E_e       0.000 [kcal/mol]        0.000 [kJ/mol]       0.00000000 [Eh]
    Translational contrib to E               0.889 [kcal/mol]        3.718 [kJ/mol]       0.00141628 [Eh]
    Rotational contrib to E                  0.000 [kcal/mol]        0.000 [kJ/mol]       0.00000000 [Eh]
    Vibrational contrib to E                 0.000 [kcal/mol]        0.000 [kJ/mol]       0.00000000 [Eh]
  Correction E                               0.889 [kcal/mol]        3.718 [kJ/mol]       0.00141628 [Eh]
  Total E, Thermal (internal) energy at  298.15 [K]                                    -527.37977767 [Eh]

  Enthalpy, H_trans = E_trans + k_B * T = E_trans + P * V
    Electronic contrib to H beyond E_e       0.000 [kcal/mol]        0.000 [kJ/mol]       0.00000000 [Eh]
    Translational contrib to H               1.481 [kcal/mol]        6.197 [kJ/mol]       0.00236046 [Eh]
    Rotational contrib to H                  0.000 [kcal/mol]        0.000 [kJ/mol]       0.00000000 [Eh]
    Vibrational contrib to H                 0.000 [kcal/mol]        0.000 [kJ/mol]       0.00000000 [Eh]
  Correction H                               1.481 [kcal/mol]        6.197 [kJ/mol]       0.00236046 [Eh]
  Total H, Enthalpy at  298.15 [K]                                                     -527.37883348 [Eh]
  *** Absolute enthalpy, not an enthalpy of formation ***

  Gibbs free energy, G = H - T * S
    Electronic contrib to G beyond E_e       0.000 [kcal/mol]        0.000 [kJ/mol]       0.00000000 [Eh]
    Translational contrib to G              -9.546 [kcal/mol]      -39.939 [kJ/mol]      -0.01521178 [Eh]
    Rotational contrib to G                  0.000 [kcal/mol]        0.000 [kJ/mol]       0.00000000 [Eh]
    Vibrational contrib to G                 0.000 [kcal/mol]        0.000 [kJ/mol]       0.00000000 [Eh]
  Correction G                              -9.546 [kcal/mol]      -39.939 [kJ/mol]      -0.01521178 [Eh]
  Total G, Gibbs energy at  298.15 [K]                                                 -527.39640573 [Eh]
  *** Absolute Gibbs energy, not a free energy of formation ***

